<?xml version="1.0" encoding="UTF-8"?>

<!-- generated on 2024-08-26 14:40:39 by Eclipse SUMO GUI Version 1.18.0
<configuration xmlns:xsi="http://www.w3.org/2001/XMLSchema-instance" xsi:noNamespaceSchemaLocation="http://sumo.dlr.de/xsd/sumoConfiguration.xsd">

    <input>
        <net-file value="env/2x2_demo.net.xml"/>
        <route-files value="env/Demand.rou.xml"/>
    </input>

    <output>
        <tripinfo-output value="Results/tripinfo_test.xml"/>
        <vehroute-output value="Results/routes_test.xml"/>
    </output>

    <time>
        <begin value="0"/>
    </time>

    <processing>
        <time-to-teleport value="-1"/>
    </processing>

    <emissions>
        <device.emissions.probability value="1"/>
    </emissions>

    <traci_server>
        <remote-port value="56604"/>
    </traci_server>

    <gui_only>
        <start value="true"/>
    </gui_only>

</configuration>
-->

<tripinfos xmlns:xsi="http://www.w3.org/2001/XMLSchema-instance" xsi:noNamespaceSchemaLocation="http://sumo.dlr.de/xsd/tripinfo_file.xsd">
    <tripinfo id="OD32.0" depart="0.00" departLane="21_0" departPos="7.10" departSpeed="0.00" departDelay="0.00" arrival="53.00" arrivalLane="-1_0" arrivalPos="300.00" arrivalSpeed="13.34" duration="53.00" routeLength="601.93" waitingTime="0.00" waitingCount="0" stopTime="0.00" timeLoss="8.13" rerouteNo="0" devices="vehroute_OD32.0 tripinfo_OD32.0 emissions_OD32.0" vType="cav" speedFactor="1.00" vaporized="">
        <emissions CO_abs="2009.256402" CO2_abs="153020.210039" HC_abs="12.367571" PMx_abs="2.278462" NOx_abs="58.780549" fuel_abs="48806.705743" electricity_abs="0"/>
    </tripinfo>
    <tripinfo id="OD49.0" depart="4.00" departLane="-23_0" departPos="7.10" departSpeed="0.00" departDelay="4.00" arrival="56.00" arrivalLane="-6_2" arrivalPos="300.00" arrivalSpeed="13.63" duration="52.00" routeLength="617.41" waitingTime="0.00" waitingCount="0" stopTime="0.00" timeLoss="6.44" rerouteNo="0" devices="vehroute_OD49.0 tripinfo_OD49.0 emissions_OD49.0" vType="cav" speedFactor="1.00" vaporized="">
        <emissions CO_abs="1611.112581" CO2_abs="151319.339321" HC_abs="10.421364" PMx_abs="1.999858" NOx_abs="55.934008" fuel_abs="48264.281857" electricity_abs="0"/>
    </tripinfo>
    <tripinfo id="OD42.0" depart="8.00" departLane="26_0" departPos="7.10" departSpeed="0.00" departDelay="8.00" arrival="60.00" arrivalLane="3_2" arrivalPos="300.00" arrivalSpeed="13.22" duration="52.00" routeLength="617.41" waitingTime="0.00" waitingCount="0" stopTime="0.00" timeLoss="6.15" rerouteNo="0" devices="vehroute_OD42.0 tripinfo_OD42.0 emissions_OD42.0" vType="cav" speedFactor="1.00" vaporized="">
        <emissions CO_abs="1598.987550" CO2_abs="147442.520391" HC_abs="10.223898" PMx_abs="1.941541" NOx_abs="54.496768" fuel_abs="47027.757625" electricity_abs="0"/>
    </tripinfo>
    <tripinfo id="OD59.0" depart="12.00" departLane="-28_0" departPos="7.10" departSpeed="0.00" departDelay="12.00" arrival="64.00" arrivalLane="8_0" arrivalPos="300.00" arrivalSpeed="13.00" duration="52.00" routeLength="601.93" waitingTime="0.00" waitingCount="0" stopTime="0.00" timeLoss="7.70" rerouteNo="0" devices="vehroute_OD59.0 tripinfo_OD59.0 emissions_OD59.0" vType="cav" speedFactor="1.00" vaporized="">
        <emissions CO_abs="1877.269941" CO2_abs="153337.172578" HC_abs="11.720589" PMx_abs="2.241558" NOx_abs="58.505186" fuel_abs="48907.761552" electricity_abs="0"/>
    </tripinfo>
    <tripinfo id="OD14.0" depart="16.00" departLane="6_0" departPos="7.10" departSpeed="0.00" departDelay="16.00" arrival="68.00" arrivalLane="23_0" arrivalPos="300.00" arrivalSpeed="13.29" duration="52.00" routeLength="601.93" waitingTime="0.00" waitingCount="0" stopTime="0.00" timeLoss="7.26" rerouteNo="0" devices="vehroute_OD14.0 tripinfo_OD14.0 emissions_OD14.0" vType="cav" speedFactor="1.00" vaporized="">
        <emissions CO_abs="1755.652498" CO2_abs="151227.394976" HC_abs="11.236321" PMx_abs="2.139610" NOx_abs="57.150970" fuel_abs="48234.882168" electricity_abs="0"/>
    </tripinfo>
    <tripinfo id="OD21.0" depart="19.00" departLane="-3_0" departPos="7.10" departSpeed="0.00" departDelay="19.00" arrival="72.00" arrivalLane="-26_0" arrivalPos="300.00" arrivalSpeed="13.43" duration="53.00" routeLength="601.93" waitingTime="0.00" waitingCount="0" stopTime="0.00" timeLoss="8.63" rerouteNo="0" devices="vehroute_OD21.0 tripinfo_OD21.0 emissions_OD21.0" vType="cav" speedFactor="1.00" vaporized="">
        <emissions CO_abs="1977.827402" CO2_abs="150378.522279" HC_abs="12.348524" PMx_abs="2.328791" NOx_abs="58.495459" fuel_abs="47964.041380" electricity_abs="0"/>
    </tripinfo>
    <tripinfo id="OD31.0" depart="26.00" departLane="-8_0" departPos="7.10" departSpeed="0.00" departDelay="26.00" arrival="78.00" arrivalLane="28_2" arrivalPos="300.00" arrivalSpeed="13.08" duration="52.00" routeLength="617.41" waitingTime="0.00" waitingCount="0" stopTime="0.00" timeLoss="6.38" rerouteNo="0" devices="vehroute_OD31.0 tripinfo_OD31.0 emissions_OD31.0" vType="cav" speedFactor="1.00" vaporized="">
        <emissions CO_abs="1660.615322" CO2_abs="146849.963906" HC_abs="10.715893" PMx_abs="2.053058" NOx_abs="55.395292" fuel_abs="46838.677592" electricity_abs="0"/>
    </tripinfo>
    <tripinfo id="OD1.0" depart="4.00" departLane="1_0" departPos="7.10" departSpeed="0.00" departDelay="4.00" arrival="82.00" arrivalLane="-6_0" arrivalPos="300.00" arrivalSpeed="13.06" duration="78.00" routeLength="910.96" waitingTime="0.00" waitingCount="0" stopTime="0.00" timeLoss="10.34" rerouteNo="0" devices="vehroute_OD1.0 tripinfo_OD1.0 emissions_OD1.0" vType="cav" speedFactor="1.00" vaporized="">
        <emissions CO_abs="2637.395579" CO2_abs="218175.501451" HC_abs="16.684023" PMx_abs="3.207410" NOx_abs="83.226706" fuel_abs="69588.308509" electricity_abs="0"/>
    </tripinfo>
    <tripinfo id="OD26.0" depart="7.00" departLane="-8_0" departPos="7.10" departSpeed="0.00" departDelay="7.00" arrival="85.00" arrivalLane="3_0" arrivalPos="300.00" arrivalSpeed="13.04" duration="78.00" routeLength="910.96" waitingTime="0.00" waitingCount="0" stopTime="0.00" timeLoss="11.10" rerouteNo="0" devices="vehroute_OD26.0 tripinfo_OD26.0 emissions_OD26.0" vType="cav" speedFactor="1.00" vaporized="">
        <emissions CO_abs="2622.520795" CO2_abs="223259.480840" HC_abs="16.654288" PMx_abs="3.216503" NOx_abs="84.835997" fuel_abs="71209.886509" electricity_abs="0"/>
    </tripinfo>
    <tripinfo id="OD4.0" depart="16.00" departLane="1_0" departPos="7.10" departSpeed="0.00" departDelay="16.00" arrival="87.00" arrivalLane="-21_2" arrivalPos="300.00" arrivalSpeed="13.16" duration="71.00" routeLength="617.41" waitingTime="14.00" waitingCount="1" stopTime="0.00" timeLoss="25.81" rerouteNo="0" devices="vehroute_OD4.0 tripinfo_OD4.0 emissions_OD4.0" vType="cav" speedFactor="1.00" vaporized="">
        <emissions CO_abs="4850.155396" CO2_abs="206450.480396" HC_abs="26.435095" PMx_abs="3.497164" NOx_abs="82.142621" fuel_abs="65849.476585" electricity_abs="0"/>
    </tripinfo>
    <tripinfo id="OD51.0" depart="11.00" departLane="-23_0" departPos="7.10" departSpeed="0.00" departDelay="11.00" arrival="92.00" arrivalLane="8_1" arrivalPos="300.00" arrivalSpeed="13.12" duration="81.00" routeLength="929.13" waitingTime="0.00" waitingCount="0" stopTime="0.00" timeLoss="12.80" rerouteNo="0" devices="vehroute_OD51.0 tripinfo_OD51.0 emissions_OD51.0" vType="cav" speedFactor="1.00" vaporized="">
        <emissions CO_abs="2828.085678" CO2_abs="234079.880387" HC_abs="17.676130" PMx_abs="3.339547" NOx_abs="88.794116" fuel_abs="74661.178080" electricity_abs="0"/>
    </tripinfo>
    <tripinfo id="OD33.0" depart="4.00" departLane="21_0" departPos="7.10" departSpeed="0.00" departDelay="4.00" arrival="93.00" arrivalLane="-6_0" arrivalPos="300.00" arrivalSpeed="13.17" duration="89.00" routeLength="929.13" waitingTime="5.00" waitingCount="1" stopTime="0.00" timeLoss="21.14" rerouteNo="0" devices="vehroute_OD33.0 tripinfo_OD33.0 emissions_OD33.0" vType="cav" speedFactor="1.00" vaporized="">
        <emissions CO_abs="4101.309954" CO2_abs="246654.114631" HC_abs="24.088008" PMx_abs="3.904936" NOx_abs="96.567990" fuel_abs="78672.090059" electricity_abs="0"/>
    </tripinfo>
    <tripinfo id="OD44.0" depart="15.00" departLane="26_0" departPos="7.10" departSpeed="0.00" departDelay="15.00" arrival="94.00" arrivalLane="-21_0" arrivalPos="300.00" arrivalSpeed="13.29" duration="79.00" routeLength="910.96" waitingTime="0.00" waitingCount="0" stopTime="0.00" timeLoss="11.23" rerouteNo="0" devices="vehroute_OD44.0 tripinfo_OD44.0 emissions_OD44.0" vType="cav" speedFactor="1.00" vaporized="">
        <emissions CO_abs="2666.921975" CO2_abs="224733.478110" HC_abs="16.968058" PMx_abs="3.320009" NOx_abs="86.157761" fuel_abs="71679.947891" electricity_abs="0"/>
    </tripinfo>
    <tripinfo id="OD58.0" depart="8.00" departLane="-28_0" departPos="7.10" departSpeed="0.00" departDelay="8.00" arrival="95.00" arrivalLane="3_0" arrivalPos="300.00" arrivalSpeed="13.87" duration="87.00" routeLength="929.13" waitingTime="3.00" waitingCount="1" stopTime="0.00" timeLoss="18.82" rerouteNo="0" devices="vehroute_OD58.0 tripinfo_OD58.0 emissions_OD58.0" vType="cav" speedFactor="1.00" vaporized="">
        <emissions CO_abs="3863.342751" CO2_abs="250514.851281" HC_abs="23.071185" PMx_abs="3.903600" NOx_abs="97.338586" fuel_abs="79903.402196" electricity_abs="0"/>
    </tripinfo>
    <tripinfo id="OD40.0" depart="0.00" departLane="26_0" departPos="7.10" departSpeed="0.00" departDelay="0.00" arrival="101.00" arrivalLane="-1_1" arrivalPos="300.00" arrivalSpeed="13.74" duration="101.00" routeLength="929.13" waitingTime="19.00" waitingCount="1" stopTime="0.00" timeLoss="33.19" rerouteNo="0" devices="vehroute_OD40.0 tripinfo_OD40.0 emissions_OD40.0" vType="cav" speedFactor="1.00" vaporized="">
        <emissions CO_abs="6222.126447" CO2_abs="290193.913908" HC_abs="34.475035" PMx_abs="4.797899" NOx_abs="114.876464" fuel_abs="92560.044622" electricity_abs="0"/>
    </tripinfo>
    <tripinfo id="OD34.0" depart="7.00" departLane="21_0" departPos="7.10" departSpeed="0.00" departDelay="7.00" arrival="102.00" arrivalLane="3_0" arrivalPos="300.00" arrivalSpeed="13.17" duration="95.00" routeLength="944.61" waitingTime="12.00" waitingCount="1" stopTime="0.00" timeLoss="26.25" rerouteNo="0" devices="vehroute_OD34.0 tripinfo_OD34.0 emissions_OD34.0" vType="cav" speedFactor="1.00" vaporized="">
        <emissions CO_abs="4916.975897" CO2_abs="260044.812567" HC_abs="28.059517" PMx_abs="4.096462" NOx_abs="101.545491" fuel_abs="82943.561267" electricity_abs="0"/>
    </tripinfo>
    <tripinfo id="OD57.0" depart="4.00" departLane="-28_0" departPos="7.10" departSpeed="0.00" departDelay="4.00" arrival="102.00" arrivalLane="-6_1" arrivalPos="300.00" arrivalSpeed="13.23" duration="98.00" routeLength="944.61" waitingTime="16.00" waitingCount="1" stopTime="0.00" timeLoss="29.07" rerouteNo="0" devices="vehroute_OD57.0 tripinfo_OD57.0 emissions_OD57.0" vType="cav" speedFactor="1.00" vaporized="">
        <emissions CO_abs="5683.127258" CO2_abs="273515.255657" HC_abs="31.802294" PMx_abs="4.452392" NOx_abs="107.790734" fuel_abs="87240.221011" electricity_abs="0"/>
    </tripinfo>
    <tripinfo id="OD55.0" depart="26.00" departLane="-23_0" departPos="7.10" departSpeed="0.00" departDelay="26.00" arrival="105.00" arrivalLane="28_0" arrivalPos="300.00" arrivalSpeed="13.54" duration="79.00" routeLength="910.96" waitingTime="0.00" waitingCount="0" stopTime="0.00" timeLoss="11.44" rerouteNo="0" devices="vehroute_OD55.0 tripinfo_OD55.0 emissions_OD55.0" vType="cav" speedFactor="1.00" vaporized="">
        <emissions CO_abs="2682.567406" CO2_abs="232067.129599" HC_abs="16.893828" PMx_abs="3.192123" NOx_abs="86.968653" fuel_abs="74019.266425" electricity_abs="0"/>
    </tripinfo>
    <tripinfo id="OD50.0" depart="7.00" departLane="-23_0" departPos="7.10" departSpeed="0.00" departDelay="7.00" arrival="111.00" arrivalLane="3_0" arrivalPos="300.00" arrivalSpeed="13.84" duration="104.00" routeLength="1235.47" waitingTime="0.00" waitingCount="0" stopTime="0.00" timeLoss="12.40" rerouteNo="0" devices="vehroute_OD50.0 tripinfo_OD50.0 emissions_OD50.0" vType="cav" speedFactor="1.00" vaporized="">
        <emissions CO_abs="3404.266952" CO2_abs="288789.515765" HC_abs="21.859665" PMx_abs="4.312790" NOx_abs="111.055823" fuel_abs="92110.914931" electricity_abs="0"/>
    </tripinfo>
    <tripinfo id="OD43.0" depart="12.00" departLane="26_0" departPos="7.10" departSpeed="0.00" departDelay="12.00" arrival="112.00" arrivalLane="8_2" arrivalPos="300.00" arrivalSpeed="13.42" duration="100.00" routeLength="944.61" waitingTime="13.00" waitingCount="2" stopTime="0.00" timeLoss="30.74" rerouteNo="0" devices="vehroute_OD43.0 tripinfo_OD43.0 emissions_OD43.0" vType="cav" speedFactor="1.00" vaporized="">
        <emissions CO_abs="5822.545036" CO2_abs="284046.881286" HC_abs="32.803329" PMx_abs="4.778064" NOx_abs="113.349604" fuel_abs="90599.142800" electricity_abs="0"/>
    </tripinfo>
    <tripinfo id="OD48.0" depart="0.00" departLane="-23_0" departPos="7.10" departSpeed="0.00" departDelay="0.00" arrival="113.00" arrivalLane="-1_2" arrivalPos="300.00" arrivalSpeed="13.40" duration="113.00" routeLength="944.61" waitingTime="25.00" waitingCount="2" stopTime="0.00" timeLoss="44.16" rerouteNo="0" devices="vehroute_OD48.0 tripinfo_OD48.0 emissions_OD48.0" vType="cav" speedFactor="1.00" vaporized="">
        <emissions CO_abs="8056.036093" CO2_abs="321335.946099" HC_abs="43.765135" PMx_abs="5.644244" NOx_abs="129.553837" fuel_abs="102493.475091" electricity_abs="0"/>
    </tripinfo>
    <tripinfo id="OD19.0" depart="11.00" departLane="-3_0" departPos="7.10" departSpeed="0.00" departDelay="11.00" arrival="114.00" arrivalLane="8_2" arrivalPos="300.00" arrivalSpeed="13.66" duration="103.00" routeLength="941.92" waitingTime="17.00" waitingCount="1" stopTime="0.00" timeLoss="33.48" rerouteNo="0" devices="vehroute_OD19.0 tripinfo_OD19.0 emissions_OD19.0" vType="cav" speedFactor="1.00" vaporized="">
        <emissions CO_abs="6329.734503" CO2_abs="292625.571435" HC_abs="35.102389" PMx_abs="4.855347" NOx_abs="115.970488" fuel_abs="93335.676427" electricity_abs="0"/>
    </tripinfo>
    <tripinfo id="OD32.1" depart="63.00" departLane="21_0" departPos="7.10" departSpeed="0.00" departDelay="0.00" arrival="115.00" arrivalLane="-1_0" arrivalPos="300.00" arrivalSpeed="13.59" duration="52.00" routeLength="601.93" waitingTime="0.00" waitingCount="0" stopTime="0.00" timeLoss="7.37" rerouteNo="0" devices="vehroute_OD32.1 tripinfo_OD32.1 emissions_OD32.1" vType="cav" speedFactor="1.00" vaporized="">
        <emissions CO_abs="1982.206020" CO2_abs="152752.246186" HC_abs="12.334008" PMx_abs="2.366323" NOx_abs="59.419745" fuel_abs="48721.117227" electricity_abs="0"/>
    </tripinfo>
    <tripinfo id="OD8.0" depart="23.00" departLane="6_0" departPos="7.10" departSpeed="0.00" departDelay="23.00" arrival="117.00" arrivalLane="-1_2" arrivalPos="300.00" arrivalSpeed="13.36" duration="94.00" routeLength="941.92" waitingTime="10.00" waitingCount="1" stopTime="0.00" timeLoss="24.04" rerouteNo="0" devices="vehroute_OD8.0 tripinfo_OD8.0 emissions_OD8.0" vType="cav" speedFactor="1.00" vaporized="">
        <emissions CO_abs="4798.185439" CO2_abs="256513.162236" HC_abs="27.370034" PMx_abs="4.068485" NOx_abs="100.271390" fuel_abs="81817.033706" electricity_abs="0"/>
    </tripinfo>
    <tripinfo id="OD49.1" depart="67.00" departLane="-23_0" departPos="7.10" departSpeed="0.00" departDelay="4.00" arrival="119.00" arrivalLane="-6_2" arrivalPos="300.00" arrivalSpeed="13.77" duration="52.00" routeLength="617.41" waitingTime="0.00" waitingCount="0" stopTime="0.00" timeLoss="6.24" rerouteNo="0" devices="vehroute_OD49.1 tripinfo_OD49.1 emissions_OD49.1" vType="cav" speedFactor="1.00" vaporized="">
        <emissions CO_abs="1703.112752" CO2_abs="148288.467236" HC_abs="10.796372" PMx_abs="2.077704" NOx_abs="55.616115" fuel_abs="47297.509049" electricity_abs="0"/>
    </tripinfo>
    <tripinfo id="OD42.1" depart="71.00" departLane="26_0" departPos="7.10" departSpeed="0.00" departDelay="8.00" arrival="123.00" arrivalLane="3_2" arrivalPos="300.00" arrivalSpeed="13.46" duration="52.00" routeLength="617.41" waitingTime="0.00" waitingCount="0" stopTime="0.00" timeLoss="6.29" rerouteNo="0" devices="vehroute_OD42.1 tripinfo_OD42.1 emissions_OD42.1" vType="cav" speedFactor="1.00" vaporized="">
        <emissions CO_abs="1741.422288" CO2_abs="151588.616668" HC_abs="11.131076" PMx_abs="2.139655" NOx_abs="57.222086" fuel_abs="48350.087984" electricity_abs="0"/>
    </tripinfo>
    <tripinfo id="OD52.0" depart="15.00" departLane="-23_0" departPos="7.10" departSpeed="0.00" departDelay="15.00" arrival="127.00" arrivalLane="-21_1" arrivalPos="300.00" arrivalSpeed="13.85" duration="112.00" routeLength="947.30" waitingTime="24.00" waitingCount="1" stopTime="0.00" timeLoss="42.97" rerouteNo="0" devices="vehroute_OD52.0 tripinfo_OD52.0 emissions_OD52.0" vType="cav" speedFactor="1.00" vaporized="">
        <emissions CO_abs="7897.104028" CO2_abs="328035.386207" HC_abs="43.190046" PMx_abs="5.660121" NOx_abs="131.532171" fuel_abs="104630.244526" electricity_abs="0"/>
    </tripinfo>
    <tripinfo id="OD59.1" depart="74.00" departLane="-28_0" departPos="7.10" departSpeed="0.00" departDelay="11.00" arrival="127.00" arrivalLane="8_0" arrivalPos="300.00" arrivalSpeed="13.23" duration="53.00" routeLength="601.93" waitingTime="0.00" waitingCount="0" stopTime="0.00" timeLoss="8.64" rerouteNo="0" devices="vehroute_OD59.1 tripinfo_OD59.1 emissions_OD59.1" vType="cav" speedFactor="1.00" vaporized="">
        <emissions CO_abs="2065.558017" CO2_abs="155261.001863" HC_abs="12.744667" PMx_abs="2.381813" NOx_abs="60.110299" fuel_abs="49521.367049" electricity_abs="0"/>
    </tripinfo>
    <tripinfo id="OD12.0" depart="8.00" departLane="6_0" departPos="7.10" departSpeed="0.00" departDelay="8.00" arrival="129.00" arrivalLane="-21_1" arrivalPos="300.00" arrivalSpeed="13.27" duration="121.00" routeLength="944.61" waitingTime="32.00" waitingCount="2" stopTime="0.00" timeLoss="51.61" rerouteNo="0" devices="vehroute_OD12.0 tripinfo_OD12.0 emissions_OD12.0" vType="cav" speedFactor="1.00" vaporized="">
        <emissions CO_abs="9217.298379" CO2_abs="340348.597304" HC_abs="49.587167" PMx_abs="6.132004" NOx_abs="138.716204" fuel_abs="108558.002785" electricity_abs="0"/>
    </tripinfo>
    <tripinfo id="OD14.1" depart="78.00" departLane="6_0" departPos="7.10" departSpeed="0.00" departDelay="15.00" arrival="131.00" arrivalLane="23_0" arrivalPos="300.00" arrivalSpeed="13.62" duration="53.00" routeLength="601.93" waitingTime="0.00" waitingCount="0" stopTime="0.00" timeLoss="8.41" rerouteNo="0" devices="vehroute_OD14.1 tripinfo_OD14.1 emissions_OD14.1" vType="cav" speedFactor="1.00" vaporized="">
        <emissions CO_abs="2009.091901" CO2_abs="154716.716725" HC_abs="12.508781" PMx_abs="2.323070" NOx_abs="59.531447" fuel_abs="49347.799229" electricity_abs="0"/>
    </tripinfo>
    <tripinfo id="OD15.0" depart="19.00" departLane="6_0" departPos="7.10" departSpeed="0.00" departDelay="19.00" arrival="134.00" arrivalLane="28_0" arrivalPos="300.00" arrivalSpeed="13.42" duration="115.00" routeLength="929.13" waitingTime="31.00" waitingCount="1" stopTime="0.00" timeLoss="46.81" rerouteNo="0" devices="vehroute_OD15.0 tripinfo_OD15.0 emissions_OD15.0" vType="cav" speedFactor="1.00" vaporized="">
        <emissions CO_abs="8653.542925" CO2_abs="327969.277659" HC_abs="46.659152" PMx_abs="5.902447" NOx_abs="133.411442" fuel_abs="104609.340524" electricity_abs="0"/>
    </tripinfo>
    <tripinfo id="OD20.0" depart="15.00" departLane="-3_0" departPos="7.10" departSpeed="0.00" departDelay="15.00" arrival="134.00" arrivalLane="-21_0" arrivalPos="300.00" arrivalSpeed="13.16" duration="119.00" routeLength="929.13" waitingTime="35.00" waitingCount="1" stopTime="0.00" timeLoss="51.10" rerouteNo="0" devices="vehroute_OD20.0 tripinfo_OD20.0 emissions_OD20.0" vType="cav" speedFactor="1.00" vaporized="">
        <emissions CO_abs="9252.192166" CO2_abs="335398.372131" HC_abs="49.483149" PMx_abs="6.007045" NOx_abs="136.315372" fuel_abs="106979.210727" electricity_abs="0"/>
    </tripinfo>
    <tripinfo id="OD29.0" depart="19.00" departLane="-8_0" departPos="7.10" departSpeed="0.00" departDelay="19.00" arrival="134.00" arrivalLane="-26_1" arrivalPos="300.00" arrivalSpeed="13.07" duration="115.00" routeLength="929.13" waitingTime="31.00" waitingCount="1" stopTime="0.00" timeLoss="46.95" rerouteNo="0" devices="vehroute_OD29.0 tripinfo_OD29.0 emissions_OD29.0" vType="cav" speedFactor="1.00" vaporized="">
        <emissions CO_abs="8376.080934" CO2_abs="324208.012881" HC_abs="45.388793" PMx_abs="5.689359" NOx_abs="131.130000" fuel_abs="103409.699867" electricity_abs="0"/>
    </tripinfo>
    <tripinfo id="OD21.1" depart="82.00" departLane="-3_0" departPos="7.10" departSpeed="0.00" departDelay="19.00" arrival="134.00" arrivalLane="-26_0" arrivalPos="300.00" arrivalSpeed="13.37" duration="52.00" routeLength="601.93" waitingTime="0.00" waitingCount="0" stopTime="0.00" timeLoss="7.83" rerouteNo="0" devices="vehroute_OD21.1 tripinfo_OD21.1 emissions_OD21.1" vType="cav" speedFactor="1.00" vaporized="">
        <emissions CO_abs="1938.199980" CO2_abs="157177.479106" HC_abs="12.143082" PMx_abs="2.276088" NOx_abs="59.824857" fuel_abs="50132.697265" electricity_abs="0"/>
    </tripinfo>
    <tripinfo id="OD38.0" depart="23.00" departLane="21_0" departPos="7.10" departSpeed="0.00" departDelay="23.00" arrival="137.00" arrivalLane="23_1" arrivalPos="300.00" arrivalSpeed="13.58" duration="114.00" routeLength="947.30" waitingTime="33.00" waitingCount="1" stopTime="0.00" timeLoss="45.62" rerouteNo="0" devices="vehroute_OD38.0 tripinfo_OD38.0 emissions_OD38.0" vType="cav" speedFactor="1.00" vaporized="">
        <emissions CO_abs="8120.254581" CO2_abs="309959.831250" HC_abs="43.606364" PMx_abs="5.266287" NOx_abs="123.505123" fuel_abs="98865.360553" electricity_abs="0"/>
    </tripinfo>
    <tripinfo id="OD6.0" depart="24.00" departLane="1_0" departPos="7.10" departSpeed="0.00" departDelay="24.00" arrival="140.00" arrivalLane="23_1" arrivalPos="300.00" arrivalSpeed="13.27" duration="116.00" routeLength="929.13" waitingTime="32.00" waitingCount="1" stopTime="0.00" timeLoss="47.96" rerouteNo="0" devices="vehroute_OD6.0 tripinfo_OD6.0 emissions_OD6.0" vType="cav" speedFactor="1.00" vaporized="">
        <emissions CO_abs="8726.288714" CO2_abs="326886.927391" HC_abs="46.903331" PMx_abs="5.820636" NOx_abs="132.569368" fuel_abs="104264.240999" electricity_abs="0"/>
    </tripinfo>
    <tripinfo id="OD1.1" depart="67.00" departLane="1_0" departPos="7.10" departSpeed="0.00" departDelay="4.00" arrival="144.00" arrivalLane="-6_0" arrivalPos="300.00" arrivalSpeed="13.12" duration="77.00" routeLength="910.96" waitingTime="0.00" waitingCount="0" stopTime="0.00" timeLoss="10.43" rerouteNo="0" devices="vehroute_OD1.1 tripinfo_OD1.1 emissions_OD1.1" vType="cav" speedFactor="1.00" vaporized="">
        <emissions CO_abs="2629.833163" CO2_abs="223530.849485" HC_abs="16.673307" PMx_abs="3.278097" NOx_abs="85.559986" fuel_abs="71296.362536" electricity_abs="0"/>
    </tripinfo>
    <tripinfo id="OD47.0" depart="26.00" departLane="26_0" departPos="7.10" departSpeed="0.00" departDelay="26.00" arrival="146.00" arrivalLane="28_1" arrivalPos="300.00" arrivalSpeed="13.33" duration="120.00" routeLength="947.30" waitingTime="39.00" waitingCount="1" stopTime="0.00" timeLoss="51.80" rerouteNo="0" devices="vehroute_OD47.0 tripinfo_OD47.0 emissions_OD47.0" vType="cav" speedFactor="1.00" vaporized="">
        <emissions CO_abs="9279.978598" CO2_abs="322349.576927" HC_abs="49.183120" PMx_abs="5.702181" NOx_abs="129.878189" fuel_abs="102817.493140" electricity_abs="0"/>
    </tripinfo>
    <tripinfo id="OD60.0" depart="16.00" departLane="-28_0" departPos="7.10" departSpeed="0.00" departDelay="16.00" arrival="146.00" arrivalLane="-21_0" arrivalPos="300.00" arrivalSpeed="13.32" duration="130.00" routeLength="1253.64" waitingTime="17.00" waitingCount="1" stopTime="0.00" timeLoss="38.28" rerouteNo="0" devices="vehroute_OD60.0 tripinfo_OD60.0 emissions_OD60.0" vType="cav" speedFactor="1.00" vaporized="">
        <emissions CO_abs="7173.957741" CO2_abs="365892.405682" HC_abs="40.715908" PMx_abs="5.998789" NOx_abs="144.985572" fuel_abs="116704.431331" electricity_abs="0"/>
    </tripinfo>
    <tripinfo id="OD4.1" depart="78.00" departLane="1_0" departPos="7.10" departSpeed="0.00" departDelay="15.00" arrival="146.00" arrivalLane="-21_2" arrivalPos="300.00" arrivalSpeed="13.84" duration="68.00" routeLength="617.41" waitingTime="12.00" waitingCount="2" stopTime="0.00" timeLoss="22.26" rerouteNo="0" devices="vehroute_OD4.1 tripinfo_OD4.1 emissions_OD4.1" vType="cav" speedFactor="1.00" vaporized="">
        <emissions CO_abs="4448.283062" CO2_abs="202907.637764" HC_abs="24.584180" PMx_abs="3.401054" NOx_abs="80.637191" fuel_abs="64719.285615" electricity_abs="0"/>
    </tripinfo>
    <tripinfo id="OD23.0" depart="26.00" departLane="-3_0" departPos="7.10" departSpeed="0.00" departDelay="26.00" arrival="148.00" arrivalLane="28_1" arrivalPos="300.00" arrivalSpeed="13.55" duration="122.00" routeLength="944.61" waitingTime="32.00" waitingCount="2" stopTime="0.00" timeLoss="53.45" rerouteNo="0" devices="vehroute_OD23.0 tripinfo_OD23.0 emissions_OD23.0" vType="cav" speedFactor="1.00" vaporized="">
        <emissions CO_abs="9499.938717" CO2_abs="346000.054921" HC_abs="50.821076" PMx_abs="6.197289" NOx_abs="140.465748" fuel_abs="110360.714310" electricity_abs="0"/>
    </tripinfo>
    <tripinfo id="OD26.1" depart="71.00" departLane="-8_0" departPos="7.10" departSpeed="0.00" departDelay="8.00" arrival="149.00" arrivalLane="3_0" arrivalPos="300.00" arrivalSpeed="13.53" duration="78.00" routeLength="910.96" waitingTime="0.00" waitingCount="0" stopTime="0.00" timeLoss="10.64" rerouteNo="0" devices="vehroute_OD26.1 tripinfo_OD26.1 emissions_OD26.1" vType="cav" speedFactor="1.00" vaporized="">
        <emissions CO_abs="2509.075064" CO2_abs="221421.422347" HC_abs="15.849693" PMx_abs="3.025484" NOx_abs="82.886058" fuel_abs="70623.730146" electricity_abs="0"/>
    </tripinfo>
    <tripinfo id="OD39.0" depart="27.00" departLane="21_0" departPos="7.10" departSpeed="0.00" departDelay="27.00" arrival="151.00" arrivalLane="28_0" arrivalPos="300.00" arrivalSpeed="13.37" duration="124.00" routeLength="1253.64" waitingTime="14.00" waitingCount="1" stopTime="0.00" timeLoss="32.49" rerouteNo="0" devices="vehroute_OD39.0 tripinfo_OD39.0 emissions_OD39.0" vType="cav" speedFactor="1.00" vaporized="">
        <emissions CO_abs="6054.575417" CO2_abs="335083.177235" HC_abs="34.554170" PMx_abs="5.079477" NOx_abs="129.356131" fuel_abs="106877.710916" electricity_abs="0"/>
    </tripinfo>
    <tripinfo id="OD5.0" depart="20.00" departLane="1_0" departPos="7.10" departSpeed="0.00" departDelay="20.00" arrival="151.00" arrivalLane="-26_2" arrivalPos="300.00" arrivalSpeed="13.69" duration="131.00" routeLength="944.61" waitingTime="43.00" waitingCount="2" stopTime="0.00" timeLoss="62.25" rerouteNo="0" devices="vehroute_OD5.0 tripinfo_OD5.0 emissions_OD5.0" vType="cav" speedFactor="1.00" vaporized="">
        <emissions CO_abs="11029.807790" CO2_abs="373799.523541" HC_abs="58.223215" PMx_abs="6.709495" NOx_abs="151.701686" fuel_abs="119228.132876" electricity_abs="0"/>
    </tripinfo>
    <tripinfo id="OD46.0" depart="22.00" departLane="26_0" departPos="7.10" departSpeed="0.00" departDelay="22.00" arrival="152.00" arrivalLane="23_2" arrivalPos="300.00" arrivalSpeed="12.98" duration="130.00" routeLength="1253.64" waitingTime="19.00" waitingCount="1" stopTime="0.00" timeLoss="38.10" rerouteNo="0" devices="vehroute_OD46.0 tripinfo_OD46.0 emissions_OD46.0" vType="cav" speedFactor="1.00" vaporized="">
        <emissions CO_abs="7083.129961" CO2_abs="352520.839747" HC_abs="39.786508" PMx_abs="5.687231" NOx_abs="138.515013" fuel_abs="112439.682989" electricity_abs="0"/>
    </tripinfo>
    <tripinfo id="OD33.1" depart="67.00" departLane="21_0" departPos="7.10" departSpeed="0.00" departDelay="4.00" arrival="152.00" arrivalLane="-6_0" arrivalPos="300.00" arrivalSpeed="13.73" duration="85.00" routeLength="929.13" waitingTime="2.00" waitingCount="1" stopTime="0.00" timeLoss="17.64" rerouteNo="0" devices="vehroute_OD33.1 tripinfo_OD33.1 emissions_OD33.1" vType="cav" speedFactor="1.00" vaporized="">
        <emissions CO_abs="3674.168226" CO2_abs="250823.148491" HC_abs="21.931516" PMx_abs="3.768376" NOx_abs="96.370110" fuel_abs="80001.740505" electricity_abs="0"/>
    </tripinfo>
    <tripinfo id="OD30.0" depart="23.00" departLane="-8_0" departPos="7.10" departSpeed="0.00" departDelay="23.00" arrival="154.00" arrivalLane="23_2" arrivalPos="300.00" arrivalSpeed="13.13" duration="131.00" routeLength="944.61" waitingTime="38.00" waitingCount="2" stopTime="0.00" timeLoss="61.92" rerouteNo="0" devices="vehroute_OD30.0 tripinfo_OD30.0 emissions_OD30.0" vType="cav" speedFactor="1.00" vaporized="">
        <emissions CO_abs="10907.118706" CO2_abs="378872.992525" HC_abs="58.008386" PMx_abs="6.990751" NOx_abs="155.936520" fuel_abs="120845.953056" electricity_abs="0"/>
    </tripinfo>
    <tripinfo id="OD37.0" depart="19.00" departLane="21_0" departPos="7.10" departSpeed="0.00" departDelay="19.00" arrival="154.00" arrivalLane="-26_2" arrivalPos="300.00" arrivalSpeed="13.85" duration="135.00" routeLength="941.92" waitingTime="47.00" waitingCount="2" stopTime="0.00" timeLoss="65.18" rerouteNo="0" devices="vehroute_OD37.0 tripinfo_OD37.0 emissions_OD37.0" vType="cav" speedFactor="1.00" vaporized="">
        <emissions CO_abs="11627.924366" CO2_abs="382730.297292" HC_abs="61.483129" PMx_abs="7.081302" NOx_abs="157.399894" fuel_abs="122076.691758" electricity_abs="0"/>
    </tripinfo>